# vtk DataFile Version 3.1
coil2.vtk
ASCII
DATASET UNSTRUCTURED_GRID

POINTS 104 float
0.065 0.112 0.035
0.064931558891 0.113044209538 0.035
0.0647274066103 0.114070552361 0.035
0.0643910362601 0.115061467459 0.035
0.0639282032303 0.116 0.035
0.0633468267223 0.116870091432 0.035
0.0626568542495 0.117656854249 0.035
0.0618700914321 0.118346826722 0.035
0.061 0.11892820323 0.035
0.0600614674589 0.11939103626 0.035
0.0590705523608 0.11972740661 0.035
0.0580442095378 0.119931558891 0.035
0.057 0.12 0.035
-0.057 0.12 0.035
-0.0580442095378 0.119931558891 0.035
-0.0590705523608 0.11972740661 0.035
-0.0600614674589 0.11939103626 0.035
-0.061 0.11892820323 0.035
-0.0618700914321 0.118346826722 0.035
-0.0626568542495 0.117656854249 0.035
-0.0633468267223 0.116870091432 0.035
-0.0639282032303 0.116 0.035
-0.0643910362601 0.115061467459 0.035
-0.0647274066103 0.114070552361 0.035
-0.064931558891 0.113044209538 0.035
-0.065 0.112 0.035
-0.065 -0.112 0.035
-0.064931558891 -0.113044209538 0.035
-0.0647274066103 -0.114070552361 0.035
-0.0643910362601 -0.115061467459 0.035
-0.0639282032303 -0.116 0.035
-0.0633468267223 -0.116870091432 0.035
-0.0626568542495 -0.117656854249 0.035
-0.0618700914321 -0.118346826722 0.035
-0.061 -0.11892820323 0.035
-0.0600614674589 -0.11939103626 0.035
-0.0590705523608 -0.11972740661 0.035
-0.0580442095378 -0.119931558891 0.035
-0.057 -0.12 0.035
0.057 -0.12 0.035
0.0580442095378 -0.119931558891 0.035
0.0590705523608 -0.11972740661 0.035
0.0600614674589 -0.11939103626 0.035
0.061 -0.11892820323 0.035
0.0618700914321 -0.118346826722 0.035
0.0626568542495 -0.117656854249 0.035
0.0633468267223 -0.116870091432 0.035
0.0639282032303 -0.116 0.035
0.0643910362601 -0.115061467459 0.035
0.0647274066103 -0.114070552361 0.035
0.064931558891 -0.113044209538 0.035
0.065 -0.112 0.035
0.0649657794455 0.112522104769 0.035
0.0648294827507 0.113557380949 0.035
0.0645592214352 0.11456600991 0.035
0.0641596197452 0.11553073373 0.035
0.0636375149763 0.116435045716 0.035
0.0630018404859 0.117263472841 0.035
0.0622634728408 0.118001840485 0.035
0.061435045716 0.118637514976 0.035
0.0605307337295 0.119159619745 0.035
0.0595660099099 0.119559221435 0.035
0.0585573809493 0.119829482751 0.035
0.0575221047689 0.119965779445 0.035
0 0.12 0.035
-0.0575221047689 0.119965779445 0.035
-0.0585573809493 0.119829482751 0.035
-0.0595660099099 0.119559221435 0.035
-0.0605307337295 0.119159619745 0.035
-0.061435045716 0.118637514976 0.035
-0.0622634728408 0.118001840485 0.035
-0.0630018404859 0.117263472841 0.035
-0.0636375149763 0.116435045716 0.035
-0.0641596197452 0.11553073373 0.035
-0.0645592214352 0.11456600991 0.035
-0.0648294827507 0.113557380949 0.035
-0.0649657794455 0.112522104769 0.035
-0.065 0 0.035
-0.0649657794455 -0.112522104769 0.035
-0.0648294827507 -0.113557380949 0.035
-0.0645592214352 -0.11456600991 0.035
-0.0641596197452 -0.11553073373 0.035
-0.0636375149763 -0.116435045716 0.035
-0.0630018404859 -0.117263472841 0.035
-0.0622634728408 -0.118001840485 0.035
-0.061435045716 -0.118637514976 0.035
-0.0605307337295 -0.119159619745 0.035
-0.0595660099099 -0.119559221435 0.035
-0.0585573809493 -0.119829482751 0.035
-0.0575221047689 -0.119965779445 0.035
0 -0.12 0.035
0.0575221047689 -0.119965779445 0.035
0.0585573809493 -0.119829482751 0.035
0.0595660099099 -0.119559221435 0.035
0.0605307337295 -0.119159619745 0.035
0.061435045716 -0.118637514976 0.035
0.0622634728408 -0.118001840485 0.035
0.0630018404859 -0.117263472841 0.035
0.0636375149763 -0.116435045716 0.035
0.0641596197452 -0.11553073373 0.035
0.0645592214352 -0.11456600991 0.035
0.0648294827507 -0.113557380949 0.035
0.0649657794455 -0.112522104769 0.035
0.065 0 0.035

CELLS 52 156
2 0 1
2 1 2
2 2 3
2 3 4
2 4 5
2 5 6
2 6 7
2 7 8
2 8 9
2 9 10
2 10 11
2 11 12
2 12 13
2 13 14
2 14 15
2 15 16
2 16 17
2 17 18
2 18 19
2 19 20
2 20 21
2 21 22
2 22 23
2 23 24
2 24 25
2 25 26
2 26 27
2 27 28
2 28 29
2 29 30
2 30 31
2 31 32
2 32 33
2 33 34
2 34 35
2 35 36
2 36 37
2 37 38
2 38 39
2 39 40
2 40 41
2 41 42
2 42 43
2 43 44
2 44 45
2 45 46
2 46 47
2 47 48
2 48 49
2 49 50
2 50 51
2 51 0

CELL_TYPES 52
3
3
3
3
3
3
3
3
3
3
3
3
3
3
3
3
3
3
3
3
3
3
3
3
3
3
3
3
3
3
3
3
3
3
3
3
3
3
3
3
3
3
3
3
3
3
3
3
3
3
3
3

CELL_DATA 52
SCALARS phi0 float
LOOKUP_TABLE default
0
0
0
0
0
0
0
0
0
0
0
0
0
0
0
0
0
0
0
0
0
0
0
0
0
0
0
0
0
0
0
0
0
0
0
0
0
0
0
0
0
0
0
0
0
0
0
0
0
0
0
0
VECTORS I0 float
-92.4939948059 1411.18566013 0
-275.899386668 1387.03988222 0
-454.584063423 1339.16146738 0
-625.49068086 1268.36962853 0
-785.694979386 1175.87563364 0
-932.455819072 1063.26208053 0
-1063.26208064 932.455818957 0
-1175.87563368 785.694979323 0
-1268.36962845 625.490681024 0
-1339.16146747 454.584063139 0
-1387.03988214 275.899387058 0
-1411.18566013 92.4939948235 0
-1414.2136 0 0
-1411.18566013 -92.4939948235 0
-1387.03988214 -275.899387058 0
-1339.16146747 -454.584063139 0
-1268.36962845 -625.490681024 0
-1175.87563368 -785.694979323 0
-1063.26208064 -932.455818957 0
-932.455819072 -1063.26208053 0
-785.694979386 -1175.87563364 0
-625.49068086 -1268.36962853 0
-454.584063423 -1339.16146738 0
-275.899386668 -1387.03988222 0
-92.4939948059 -1411.18566013 0
0 -1414.2136 0
92.4939948059 -1411.18566013 0
275.899386668 -1387.03988222 0
454.584063423 -1339.16146738 0
625.49068086 -1268.36962853 0
785.694979386 -1175.87563364 0
932.455819072 -1063.26208053 0
1063.26208064 -932.455818957 0
1175.87563368 -785.694979323 0
1268.36962845 -625.490681024 0
1339.16146747 -454.584063139 0
1387.03988214 -275.899387058 0
1411.18566013 -92.4939948235 0
1414.2136 0 0
1411.18566013 92.4939948235 0
1387.03988214 275.899387058 0
1339.16146747 454.584063139 0
1268.36962845 625.490681024 0
1175.87563368 785.694979323 0
1063.26208064 932.455818957 0
932.455819072 1063.26208053 0
785.694979386 1175.87563364 0
625.49068086 1268.36962853 0
454.584063423 1339.16146738 0
275.899386668 1387.03988222 0
92.4939948059 1411.18566013 0
0 1414.2136 0

POINT_DATA 104
SCALARS phi0 float
LOOKUP_TABLE default
0
0
0
0
0
0
0
0
0
0
0
0
0
0
0
0
0
0
0
0
0
0
0
0
0
0
0
0
0
0
0
0
0
0
0
0
0
0
0
0
0
0
0
0
0
0
0
0
0
0
0
0
0
0
0
0
0
0
0
0
0
0
0
0
0
0
0
0
0
0
0
0
0
0
0
0
0
0
0
0
0
0
0
0
0
0
0
0
0
0
0
0
0
0
0
0
0
0
0
0
0
0
0
0
VECTORS I0 float
0 0 0
0 0 0
0 0 0
0 0 0
0 0 0
0 0 0
0 0 0
0 0 0
0 0 0
0 0 0
0 0 0
0 0 0
0 0 0
0 0 0
0 0 0
0 0 0
0 0 0
0 0 0
0 0 0
0 0 0
0 0 0
0 0 0
0 0 0
0 0 0
0 0 0
0 0 0
0 0 0
0 0 0
0 0 0
0 0 0
0 0 0
0 0 0
0 0 0
0 0 0
0 0 0
0 0 0
0 0 0
0 0 0
0 0 0
0 0 0
0 0 0
0 0 0
0 0 0
0 0 0
0 0 0
0 0 0
0 0 0
0 0 0
0 0 0
0 0 0
0 0 0
0 0 0
-92.4939948059 1411.18566013 0
-275.899386668 1387.03988222 0
-454.584063423 1339.16146738 0
-625.49068086 1268.36962853 0
-785.694979386 1175.87563364 0
-932.455819072 1063.26208053 0
-1063.26208064 932.455818957 0
-1175.87563368 785.694979323 0
-1268.36962845 625.490681024 0
-1339.16146747 454.584063139 0
-1387.03988214 275.899387058 0
-1411.18566013 92.4939948235 0
-1414.2136 0 0
-1411.18566013 -92.4939948235 0
-1387.03988214 -275.899387058 0
-1339.16146747 -454.584063139 0
-1268.36962845 -625.490681024 0
-1175.87563368 -785.694979323 0
-1063.26208064 -932.455818957 0
-932.455819072 -1063.26208053 0
-785.694979386 -1175.87563364 0
-625.49068086 -1268.36962853 0
-454.584063423 -1339.16146738 0
-275.899386668 -1387.03988222 0
-92.4939948059 -1411.18566013 0
0 -1414.2136 0
92.4939948059 -1411.18566013 0
275.899386668 -1387.03988222 0
454.584063423 -1339.16146738 0
625.49068086 -1268.36962853 0
785.694979386 -1175.87563364 0
932.455819072 -1063.26208053 0
1063.26208064 -932.455818957 0
1175.87563368 -785.694979323 0
1268.36962845 -625.490681024 0
1339.16146747 -454.584063139 0
1387.03988214 -275.899387058 0
1411.18566013 -92.4939948235 0
1414.2136 0 0
1411.18566013 92.4939948235 0
1387.03988214 275.899387058 0
1339.16146747 454.584063139 0
1268.36962845 625.490681024 0
1175.87563368 785.694979323 0
1063.26208064 932.455818957 0
932.455819072 1063.26208053 0
785.694979386 1175.87563364 0
625.49068086 1268.36962853 0
454.584063423 1339.16146738 0
275.899386668 1387.03988222 0
92.4939948059 1411.18566013 0
0 1414.2136 0

