# vtk DataFile Version 3.1
coil.vtk
ASCII
DATASET UNSTRUCTURED_GRID

POINTS 24 float
0.065 -0.12 0.009
0.065 0.12 0.009
-0.065 0.12 0.009
-0.065 -0.12 0.009
0.065 -0.12 0.022
0.065 0.12 0.022
-0.065 0.12 0.022
-0.065 -0.12 0.022
0.065 -0.12 0.035
0.065 0.12 0.035
-0.065 0.12 0.035
-0.065 -0.12 0.035
0.065 0 0.009
0 0.12 0.009
-0.065 0 0.009
0 -0.12 0.009
0.065 0 0.022
0 0.12 0.022
-0.065 0 0.022
0 -0.12 0.022
0.065 0 0.035
0 0.12 0.035
-0.065 0 0.035
0 -0.12 0.035

CELLS 12 36
2 0 1
2 1 2
2 2 3
2 3 0
2 4 5
2 5 6
2 6 7
2 7 4
2 8 9
2 9 10
2 10 11
2 11 8

CELL_TYPES 12
3
3
3
3
3
3
3
3
3
3
3
3

CELL_DATA 12
SCALARS phi0 float
LOOKUP_TABLE default
0
0
0
0
0
0
0
0
0
0
0
0
VECTORS I0 float
0 1414.2136 0
-1414.2136 0 0
0 -1414.2136 0
1414.2136 0 0
0 1414.2136 0
-1414.2136 0 0
0 -1414.2136 0
1414.2136 0 0
0 1414.2136 0
-1414.2136 0 0
0 -1414.2136 0
1414.2136 0 0

POINT_DATA 24
SCALARS phi0 float
LOOKUP_TABLE default
0
0
0
0
0
0
0
0
0
0
0
0
0
0
0
0
0
0
0
0
0
0
0
0
VECTORS I0 float
0 0 0
0 0 0
0 0 0
0 0 0
0 0 0
0 0 0
0 0 0
0 0 0
0 0 0
0 0 0
0 0 0
0 0 0
0 1414.2136 0
-1414.2136 0 0
0 -1414.2136 0
1414.2136 0 0
0 1414.2136 0
-1414.2136 0 0
0 -1414.2136 0
1414.2136 0 0
0 1414.2136 0
-1414.2136 0 0
0 -1414.2136 0
1414.2136 0 0

